# LAMMPS data file written by OVITO Basic 3.8.5

100 atoms
2 atom types

0.380317 16.864457 xlo xhi
1.051386 17.347437 ylo yhi
20.327961 33.907936 zlo zhi

Masses

1 12.0107  # C
2 1.00794  # H

Atoms  # full

1 1 1 0.0 2.999311 2.49605 21.880498
2 1 2 0.0 2.361897 2.655889 22.762444
3 1 2 0.0 4.003541 2.186567 22.20518
4 1 2 0.0 2.56012 1.71053 21.248244
5 1 2 0.0 3.071686 3.431213 21.306123
6 2 1 0.0 14.764241 10.123671 27.333621
7 2 2 0.0 15.500934 10.710459 26.765608
8 2 2 0.0 13.83021 10.051359 26.7574
9 2 2 0.0 15.161488 9.114434 27.516127
10 2 2 0.0 14.564332 10.618434 28.29535
11 3 1 0.0 10.294691 13.090909 21.483576
12 3 2 0.0 9.347602 12.642476 21.149502
13 3 2 0.0 10.853363 13.46016 20.6111
14 3 2 0.0 10.0837 13.928098 22.164951
15 3 2 0.0 10.8941 12.3329 22.00875
16 4 1 0.0 13.674971 13.643498 26.090931
17 4 2 0.0 14.579124 13.764845 25.476556
18 4 2 0.0 12.84433 13.300187 25.457016
19 4 2 0.0 13.864865 12.901345 26.880123
20 4 2 0.0 13.411565 14.607615 26.550029
21 5 1 0.0 13.27794 5.724014 26.667427
22 5 2 0.0 13.356384 5.237743 27.65082
23 5 2 0.0 12.370466 6.344675 26.636687
24 5 2 0.0 14.161279 6.357601 26.500227
25 5 2 0.0 13.223632 4.956037 25.881974
26 6 1 0.0 8.811445 6.356394 33.173555
27 6 2 0.0 7.857243 6.01008 33.596923
28 6 2 0.0 9.329858 6.990119 33.907936
29 6 2 0.0 9.440855 5.488101 32.929457
30 6 2 0.0 8.617823 6.937278 32.259903
31 7 1 0.0 3.905986 9.010406 21.143388
32 7 2 0.0 3.682322 10.074639 20.978892
33 7 2 0.0 2.967397 8.437428 21.163882
34 7 2 0.0 4.544154 8.6396 20.327961
35 7 2 0.0 4.430073 8.889959 22.102815
36 8 1 0.0 10.902457 2.021249 30.318647
37 8 2 0.0 11.810345 1.853678 30.916421
38 8 2 0.0 10.1404 1.27712 30.592903
39 8 2 0.0 10.515475 3.031848 30.51514
40 8 2 0.0 11.143606 1.922351 29.250124
41 9 1 0.0 5.661782 1.755466 30.134758
42 9 2 0.0 5.756182 2.76627 30.557889
43 9 2 0.0 6.261516 1.051386 30.729959
44 9 2 0.0 4.606408 1.446531 30.155263
45 9 2 0.0 6.02302 1.757678 29.095924
46 10 1 0.0 8.579532 5.731833 23.406564
47 10 2 0.0 7.786783 5.738766 24.168913
48 10 2 0.0 8.149436 5.454905 22.43291
49 10 2 0.0 9.030038 6.732773 23.337008
50 10 2 0.0 9.351873 5.000887 23.687427
51 11 1 0.0 15.900667 4.146864 29.515211
52 11 2 0.0 15.196826 3.48548 30.04138
53 11 2 0.0 16.048928 5.065378 30.101749
54 11 2 0.0 16.864457 3.631812 29.390693
55 11 2 0.0 15.492457 4.404788 28.527023
56 12 1 0.0 3.555251 16.504955 26.284416
57 12 2 0.0 3.447121 17.347437 26.983135
58 12 2 0.0 4.142155 16.825775 25.411321
59 12 2 0.0 4.071555 15.674743 26.788253
60 12 2 0.0 2.560172 16.171867 25.954953
61 13 1 0.0 1.220562 10.426365 22.429696
62 13 2 0.0 0.380317 9.737539 22.600522
63 13 2 0.0 2.139907 9.995076 22.852152
64 13 2 0.0 1.352133 10.583262 21.349072
65 13 2 0.0 1.009891 11.389584 22.917037
66 14 1 0.0 15.839388 13.150793 22.634135
67 14 2 0.0 15.783686 14.139973 22.156541
68 14 2 0.0 15.954533 12.376583 21.861467
69 14 2 0.0 16.702631 13.120499 23.314993
70 14 2 0.0 14.916702 12.966118 23.203538
71 15 1 0.0 12.486989 15.431519 22.982107
72 15 2 0.0 12.068431 15.163637 23.963292
73 15 2 0.0 13.446381 15.950771 23.122177
74 15 2 0.0 12.647283 14.518459 22.390245
75 15 2 0.0 11.78586 16.093212 22.452715
76 16 1 0.0 6.310401 8.628114 24.099203
77 16 2 0.0 7.232924 9.205473 23.940198
78 16 2 0.0 6.174122 7.918994 23.269594
79 16 2 0.0 6.383214 8.074307 25.046659
80 16 2 0.0 5.451345 9.313682 24.140363
81 17 1 0.0 15.623829 11.141805 32.207663
82 17 2 0.0 15.817224 10.07433 32.026639
83 17 2 0.0 16.580092 11.675426 32.310054
84 17 2 0.0 15.059 11.56063 31.36195
85 17 2 0.0 15.038998 11.256836 33.132009
86 18 1 0.0 4.938576 6.533801 29.506965
87 18 2 0.0 5.757859 6.919439 28.882678
88 18 2 0.0 4.143845 6.131838 28.861594
89 18 2 0.0 5.319859 5.73497 30.15978
90 18 2 0.0 4.532741 7.348956 30.123808
91 19 1 0.0 6.925687 4.603553 27.226163
92 19 2 0.0 7.065054 3.76033 27.918424
93 19 2 0.0 6.087743 5.226705 27.571426
94 19 2 0.0 7.843888 5.20823 27.195374
95 19 2 0.0 6.706064 4.218947 26.219426
96 20 1 0.0 14.799097 4.154859 32.725793
97 20 2 0.0 15.790366 4.155901 32.249286
98 20 2 0.0 14.049519 3.783237 32.011857
99 20 2 0.0 14.81827 3.501659 33.610461
100 20 2 0.0 14.538232 5.178639 33.031569
