LAMMPS (2 Aug 2023)
# Define initial parameters.
units metal
atom_style full
boundary p p p

# Define neighbor list options.
neighbor 2.0 bin
neigh_modify every 1 delay 0 check yes

# Lattice constant.
variable a equal 3.612424

# Number of cell units along the directions.
variable Nx equal 5
variable Ny equal 5
variable Nz equal 5
variable Nz_2 equal 10

# Create simulation box.
lattice fcc ${a}
lattice fcc 3.612424
Lattice spacing in x,y,z = 3.612424 3.612424 3.612424
region whole block 0 ${Nx} 0 ${Ny} 0 ${Nz_2}
region whole block 0 5 0 ${Ny} 0 ${Nz_2}
region whole block 0 5 0 5 0 ${Nz_2}
region whole block 0 5 0 5 0 10
create_box 3 whole
Created orthogonal box = (0 0 0) to (18.06212 18.06212 36.12424)
  1 by 1 by 1 MPI processor grid

# Create bulk atoms.
region bulk_region block 0 ${Nx} 0 ${Ny} 0 ${Nz}
region bulk_region block 0 5 0 ${Ny} 0 ${Nz}
region bulk_region block 0 5 0 5 0 ${Nz}
region bulk_region block 0 5 0 5 0 5
create_atoms 1 region bulk_region
Created 550 atoms
  using lattice units in orthogonal box = (0 0 0) to (18.06212 18.06212 36.12424)
  create_atoms CPU = 0.001 seconds

# Import CH4 atoms.
read_data data_mol add append offset 1 0 0 0 0
Reading data file ...
  orthogonal box = (0 0 0) to (18.06212 18.06212 36.12424)
  1 by 1 by 1 MPI processor grid
  reading atoms ...
  100 atoms
Finding 1-2 1-3 1-4 neighbors ...
  special bond factors lj:    0        0        0       
  special bond factors coul:  0        0        0       
     0 = max # of 1-2 neighbors
     0 = max # of 1-3 neighbors
     0 = max # of 1-4 neighbors
     1 = max # of special neighbors
  special bonds CPU = 0.000 seconds
  read_data CPU = 0.001 seconds

# Define stationary atoms and fix.
variable stationary_atoms atom (z<4*${a})
variable stationary_atoms atom (z<4*3.612424)
group stationary variable stationary_atoms
400 atoms in group stationary
group moving subtract all stationary
250 atoms in group moving
fix 1 stationary setforce 0 0 0

# Group Ni and CH4 atoms.
group ni molecule 0
550 atoms in group ni
group ch4 subtract all ni
100 atoms in group ch4

# Define atomic masses. C and H already defined in data file.
mass 1 58.6934

# Set interatomic potentials.
pair_style reax/c NULL safezone 1.6 mincap 100
pair_coeff * * ffield.reax Ni C H
fix 2 all qeq/reax 100 0 10 1e-6 reax/c

# Define OVITO readable dump.
dump 1 all custom 1000 CH4onNi_distributed_rigid.lammpstrj id mol type x y z vx vy vz fx fy fz
dump_modify 1 sort id

# Set output step and values.
thermo 1000
thermo_style custom step temp etotal pe ke

# Optimize initial structure.
minimize 1.0e-12 1.0e-12 1000 10000

CITE-CITE-CITE-CITE-CITE-CITE-CITE-CITE-CITE-CITE-CITE-CITE-CITE

Your simulation uses code contributions which should be cited:

- pair reaxff command: doi:10.1016/j.parco.2011.08.005

@Article{Aktulga12,
 author = {H. M. Aktulga and J. C. Fogarty and S. A. Pandit and A. Y. Grama},
 title = {Parallel Reactive Molecular Dynamics: {N}umerical Methods and Algorithmic Techniques},
 journal = {Parallel Computing},
 year =    2012,
 volume =  38,
 number =  {4--5},
 pages =   {245--259}
}

- fix qeq/reaxff command: doi:10.1016/j.parco.2011.08.005

@Article{Aktulga12,
 author = {H. M. Aktulga and J. C. Fogarty and S. A. Pandit and A. Y. Grama},
 title = {Parallel Reactive Molecular Dynamics: {N}umerical Methods and Algorithmic Techniques},
 journal = {Parallel Computing},
 year =    2012,
 volume =  38,
 pages =   {245--259}
}

CITE-CITE-CITE-CITE-CITE-CITE-CITE-CITE-CITE-CITE-CITE-CITE-CITE

Neighbor list info ...
  update: every = 1 steps, delay = 0 steps, check = yes
  max neighbors/atom: 2000, page size: 100000
  master list distance cutoff = 12
  ghost atom cutoff = 12
  binsize = 6, bins = 4 4 7
  2 neighbor lists, perpetual/occasional/extra = 2 0 0
  (1) pair reax/c, perpetual
      attributes: half, newton off, ghost
      pair build: half/bin/newtoff/ghost
      stencil: full/ghost/bin/3d
      bin: standard
  (2) fix qeq/reax, perpetual, copy from (1)
      attributes: half, newton off
      pair build: copy
      stencil: none
      bin: none
Per MPI rank memory allocation (min/avg/max) = 146.5 | 146.5 | 146.5 Mbytes
   Step          Temp          TotEng         PotEng         KinEng    
         0   0             -63469.071     -63469.071      0            
       414   0             -63516.775     -63516.775      0            
Loop time of 71.9743 on 1 procs for 414 steps with 650 atoms

99.7% CPU use with 1 MPI tasks x no OpenMP threads

Minimization stats:
  Stopping criterion = energy tolerance
  Energy initial, next-to-last, final = 
     -63469.0708008472  -63516.7754544938  -63516.7754545514
  Force two-norm initial, final = 223.0934 2.288249
  Force max component initial, final = 23.662926 0.8943814
  Final line search alpha, max atom move = 0.00021837269 0.00019530848
  Iterations, force evaluations = 414 1352

MPI task timing breakdown:
Section |  min time  |  avg time  |  max time  |%varavg| %total
---------------------------------------------------------------
Pair    | 71.43      | 71.43      | 71.43      |   0.0 | 99.24
Bond    | 9.4123e-05 | 9.4123e-05 | 9.4123e-05 |   0.0 |  0.00
Neigh   | 0.077771   | 0.077771   | 0.077771   |   0.0 |  0.11
Comm    | 0.028004   | 0.028004   | 0.028004   |   0.0 |  0.04
Output  | 0          | 0          | 0          |   0.0 |  0.00
Modify  | 0.41556    | 0.41556    | 0.41556    |   0.0 |  0.58
Other   |            | 0.02262    |            |       |  0.03

Nlocal:            650 ave         650 max         650 min
Histogram: 1 0 0 0 0 0 0 0 0 0
Nghost:           4985 ave        4985 max        4985 min
Histogram: 1 0 0 0 0 0 0 0 0 0
Neighs:         225244 ave      225244 max      225244 min
Histogram: 1 0 0 0 0 0 0 0 0 0

Total # of neighbors = 225244
Ave neighs/atom = 346.52923
Ave special neighs/atom = 0
Neighbor list builds = 3
Dangerous builds = 0

# Define dt.
timestep 0.0001 # 1e-7 ns.

# Define damping parameter.
variable damp equal $(400*dt)
variable damp equal 0.040000000000000000833

# Give initial velocity to moving atoms.
velocity moving create 1 12345 rot yes dist gaussian

# Thermalize the system keeping C-H bonds intact.
fix 3 ni nvt temp 1 500 ${damp}
fix 3 ni nvt temp 1 500 0.04
fix 4 ch4 rigid/nvt/small molecule temp 1 500 ${damp}
fix 4 ch4 rigid/nvt/small molecule temp 1 500 0.04
  create bodies CPU = 0.000 seconds
  20 rigid bodies with 100 atoms
  1.0698412 = max distance from body owner to body atom
run 20000
Per MPI rank memory allocation (min/avg/max) = 153.6 | 153.6 | 153.6 Mbytes
   Step          Temp          TotEng         PotEng         KinEng    
       414   0.31146835    -63516.752     -63516.775      0.023713402  
      1000   8.430233      -63517.85      -63518.491      0.64182926   
      2000   10.059516     -63521.02      -63521.786      0.76587348   
      3000   15.328599     -63523.838     -63525.005      1.167031     
      4000   13.562884     -63525.421     -63526.453      1.0325997    
      5000   19.248319     -63525.966     -63527.432      1.4654558    
      6000   38.261414     -63525.394     -63528.307      2.9130031    
      7000   65.670273     -63522.29      -63527.29       4.9997554    
      8000   131.92837     -63513.502     -63523.546      10.044264    
      9000   204.72911     -63500.07      -63515.657      15.586892    
     10000   218.42217     -63498.541     -63515.171      16.629402    
     11000   262.66293     -63498.04      -63518.037      19.997638    
     12000   299.03884     -63490.139     -63512.906      22.76709     
     13000   293.21561     -63493.063     -63515.387      22.323743    
     14000   364.19256     -63486.369     -63514.097      27.727519    
     15000   370.65129     -63482.251     -63510.471      28.219249    
     16000   359.43397     -63483.017     -63510.382      27.365227    
     17000   431.78865     -63473.552     -63506.426      32.873895    
     18000   420.0307      -63474.068     -63506.046      31.978712    
     19000   436.76847     -63468.836     -63502.089      33.253029    
     20000   513.12013     -63463.541     -63502.607      39.066004    
     20414   502.01727     -63463.796     -63502.017      38.220696    
Loop time of 1105.77 on 1 procs for 20000 steps with 650 atoms

Performance: 0.156 ns/day, 153.580 hours/ns, 18.087 timesteps/s, 11.756 katom-step/s
99.0% CPU use with 1 MPI tasks x no OpenMP threads

MPI task timing breakdown:
Section |  min time  |  avg time  |  max time  |%varavg| %total
---------------------------------------------------------------
Pair    | 1097       | 1097       | 1097       |   0.0 | 99.21
Bond    | 0.0020165  | 0.0020165  | 0.0020165  |   0.0 |  0.00
Neigh   | 1.251      | 1.251      | 1.251      |   0.0 |  0.11
Comm    | 0.44056    | 0.44056    | 0.44056    |   0.0 |  0.04
Output  | 0.022863   | 0.022863   | 0.022863   |   0.0 |  0.00
Modify  | 6.945      | 6.945      | 6.945      |   0.0 |  0.63
Other   |            | 0.09172    |            |       |  0.01

Nlocal:            650 ave         650 max         650 min
Histogram: 1 0 0 0 0 0 0 0 0 0
Nghost:           5315 ave        5315 max        5315 min
Histogram: 1 0 0 0 0 0 0 0 0 0
Neighs:         224928 ave      224928 max      224928 min
Histogram: 1 0 0 0 0 0 0 0 0 0

Total # of neighbors = 224928
Ave neighs/atom = 346.04308
Ave special neighs/atom = 0
Neighbor list builds = 46
Dangerous builds = 0

unfix 3
unfix 4

# Relax at 500 K.
fix 5 all nvt temp 500 500 ${damp}
fix 5 all nvt temp 500 500 0.04
run 200000
Per MPI rank memory allocation (min/avg/max) = 149.3 | 149.3 | 149.3 Mbytes
   Step          Temp          TotEng         PotEng         KinEng    
     20414   455.60581     -63463.796     -63502.017      38.220696    
     21000   457.30085     -63459.775     -63498.138      38.362893    
     22000   510.3378      -63455.617     -63498.429      42.812154    
     23000   468.42355     -63460.851     -63500.147      39.295974    
     24000   502.29585     -63457.124     -63499.261      42.137516    
     25000   500.48894     -63460.04      -63502.026      41.985934    
     26000   501.54203     -63462.894     -63504.968      42.074278    
     27000   469.93905     -63459.166     -63498.589      39.423109    
     28000   485.48259     -63462.232     -63502.959      40.727054    
     29000   522.90562     -63461.325     -63505.192      43.866465    
     30000   532.47164     -63459.595     -63504.264      44.668957    
     31000   505.05925     -63463.111     -63505.48       42.369337    
     32000   463.52901     -63460.065     -63498.95       38.885372    
     33000   466.37779     -63465.528     -63504.652      39.124355    
     34000   473.1342      -63461.206     -63500.897      39.691149    
     35000   510.83414     -63459.981     -63502.835      42.853791    
     36000   482.18712     -63463.461     -63503.911      40.450597    
     37000   559.1195      -63462.192     -63509.097      46.904442    
     38000   480.7473      -63465.126     -63505.456      40.329811    
     39000   518.33597     -63461.637     -63505.12       43.483119    
     40000   453.06793     -63463.984     -63501.992      38.007793    
     41000   482.52183     -63463.082     -63503.561      40.478676    
     42000   518.58182     -63465.914     -63509.418      43.503743    
     43000   481.84694     -63467.108     -63507.53       40.42206     
     44000   495.28528     -63466.547     -63508.096      41.5494      
     45000   505.602       -63468.325     -63510.74       42.414868    
     46000   480.95997     -63464.298     -63504.646      40.347652    
     47000   479.1351      -63469.481     -63509.676      40.194564    
     48000   524.32476     -63465.407     -63509.393      43.985517    
     49000   463.97482     -63466.529     -63505.451      38.92277     
     50000   488.94591     -63468.218     -63509.236      41.017591    
     51000   519.90762     -63465.41      -63509.025      43.614964    
     52000   496.85471     -63469.638     -63511.319      41.681059    
     53000   490.81585     -63466.416     -63507.591      41.17446     
     54000   468.95919     -63464.771     -63504.112      39.340908    
     55000   496.39223     -63468.706     -63510.348      41.642262    
     56000   534.05473     -63465.626     -63510.427      44.801763    
     57000   484.03637     -63466.215     -63506.821      40.605731    
     58000   524.15281     -63462.847     -63506.818      43.971092    
     59000   463.27061     -63468.291     -63507.155      38.863694    
     60000   538.05403     -63464.976     -63510.113      45.137263    
     61000   502.73894     -63470.523     -63512.698      42.174686    
     62000   508.8146      -63466.356     -63509.041      42.684372    
     63000   505.4587      -63468.005     -63510.408      42.402847    
     64000   527.86264     -63468.87      -63513.152      44.28231     
     65000   510.21267     -63466.06      -63508.861      42.801656    
     66000   460.93103     -63470.892     -63509.559      38.667427    
     67000   478.29557     -63467.943     -63508.067      40.124136    
     68000   519.71253     -63466.701     -63510.299      43.598598    
     69000   534.46628     -63464.925     -63509.761      44.836288    
     70000   508.14105     -63469.685     -63512.313      42.627868    
     71000   533.97716     -63466.476     -63511.272      44.795255    
     72000   498.70183     -63467.923     -63509.759      41.836014    
     73000   516.472       -63465.2       -63508.527      43.326751    
     74000   475.60298     -63469.571     -63509.47       39.898255    
     75000   520.15701     -63467.682     -63511.318      43.635885    
     76000   497.89204     -63467.034     -63508.802      41.768081    
     77000   479.76633     -63469.612     -63509.859      40.247518    
     78000   515.28707     -63466.69      -63509.917      43.227347    
     79000   474.47753     -63467.878     -63507.682      39.803842    
     80000   508.65848     -63468.954     -63511.625      42.671276    
     81000   537.90427     -63466.979     -63512.104      45.1247      
     82000   485.14574     -63472.672     -63513.371      40.698796    
     83000   452.02119     -63468.898     -63506.818      37.919982    
     84000   526.27417     -63466.772     -63510.921      44.149053    
     85000   538.53683     -63467.081     -63512.258      45.177765    
     86000   495.62102     -63468.949     -63510.527      41.577565    
     87000   477.65825     -63466.247     -63506.317      40.070672    
     88000   476.62237     -63469.505     -63509.488      39.983772    
     89000   547.82874     -63464.89      -63510.847      45.957262    
     90000   519.08523     -63469.299     -63512.845      43.545974    
     91000   498.54529     -63464.089     -63505.912      41.822882    
     92000   518.38455     -63468.456     -63511.943      43.487194    
     93000   510.48279     -63466.772     -63509.597      42.824316    
     94000   507.98291     -63466.909     -63509.523      42.614602    
     95000   479.46043     -63468.377     -63508.599      40.221856    
     96000   533.00189     -63463.346     -63508.059      44.71344     
     97000   578.24815     -63467.375     -63515.884      48.509142    
     98000   553.12819     -63468.199     -63514.601      46.401832    
     99000   536.74787     -63464.34      -63509.368      45.027689    
    100000   480.98046     -63469.205     -63509.555      40.349371    
    101000   507.06899     -63465.013     -63507.551      42.537933    
    102000   428.18945     -63470.208     -63506.128      35.920742    
    103000   504.72432     -63466.341     -63508.682      42.341239    
    104000   503.71169     -63470.87      -63513.126      42.25629     
    105000   475.8129      -63467.58      -63507.496      39.915865    
    106000   519.95983     -63467.797     -63511.416      43.619344    
    107000   506.75598     -63468.598     -63511.11       42.511675    
    108000   521.25221     -63465.883     -63509.611      43.727762    
    109000   493.7111      -63469.544     -63510.961      41.417342    
    110000   496.30824     -63468.236     -63509.872      41.635216    
    111000   527.89792     -63462.499     -63506.784      44.285269    
    112000   532.21154     -63467.869     -63512.516      44.647138    
    113000   458.35201     -63468.902     -63507.353      38.451074    
    114000   533.48969     -63465.101     -63509.855      44.754362    
    115000   488.43634     -63469.611     -63510.586      40.974844    
    116000   519.92233     -63466.176     -63509.793      43.616198    
    117000   463.75833     -63469.131     -63508.035      38.90461     
    118000   480.18963     -63468.617     -63508.9        40.283029    
    119000   492.01525     -63467.066     -63508.341      41.275078    
    120000   501.14683     -63469.789     -63511.831      42.041125    
    121000   544.44173     -63464.656     -63510.33       45.673126    
    122000   549.32631     -63469.368     -63515.451      46.082893    
    123000   509.38681     -63465.362     -63508.094      42.732375    
    124000   496.25181     -63468.65      -63510.28       41.630482    
    125000   483.96644     -63468.694     -63509.294      40.599865    
    126000   517.8942      -63465.719     -63509.165      43.446059    
    127000   501.71416     -63470.713     -63512.802      42.088718    
    128000   509.5892      -63466.402     -63509.151      42.749353    
    129000   499.6724      -63468.591     -63510.508      41.917435    
    130000   490.01393     -63469.952     -63511.059      41.107187    
    131000   529.93738     -63466.186     -63510.642      44.456359    
    132000   482.16251     -63470.247     -63510.695      40.448533    
    133000   516.05661     -63468.4       -63511.692      43.291903    
    134000   502.80109     -63466.712     -63508.892      42.1799      
    135000   470.97984     -63470.036     -63509.546      39.510421    
    136000   507.78994     -63466.728     -63509.326      42.598414    
    137000   502.1171      -63468.602     -63510.725      42.12252     
    138000   451.91608     -63469.249     -63507.16       37.911165    
    139000   504.10189     -63467.466     -63509.755      42.289024    
    140000   512.0674      -63469.932     -63512.889      42.957249    
    141000   530.06381     -63462.51      -63506.977      44.466965    
    142000   518.18226     -63466.677     -63510.147      43.470224    
    143000   479.15782     -63470.354     -63510.551      40.19647     
    144000   529.05636     -63465.695     -63510.078      44.38245     
    145000   487.92598     -63468.464     -63509.396      40.93203     
    146000   485.79191     -63468.86      -63509.613      40.753002    
    147000   519.39605     -63466.079     -63509.651      43.572048    
    148000   533.93189     -63470.534     -63515.325      44.791458    
    149000   517.38447     -63468.028     -63511.431      43.403297    
    150000   524.9278      -63468.618     -63512.654      44.036106    
    151000   431.63253     -63472.778     -63508.988      36.209581    
    152000   493.69149     -63467.851     -63509.266      41.415697    
    153000   448.62064     -63470.229     -63507.864      37.634711    
    154000   511.80074     -63468.642     -63511.577      42.934879    
    155000   493.9026      -63468.417     -63509.85       41.433407    
    156000   495.18908     -63471.476     -63513.017      41.54133     
    157000   522.78236     -63466.705     -63510.561      43.856126    
    158000   498.80398     -63470.811     -63512.656      41.844583    
    159000   506.77741     -63464.515     -63507.029      42.513473    
    160000   473.80831     -63469.365     -63509.113      39.747701    
    161000   484.59946     -63468.583     -63509.236      40.652969    
    162000   534.14729     -63467.056     -63511.866      44.809527    
    163000   507.38495     -63469.001     -63511.565      42.564439    
    164000   534.17165     -63465.071     -63509.883      44.811571    
    165000   507.31733     -63469.013     -63511.572      42.558767    
    166000   462.05709     -63468.199     -63506.961      38.761893    
    167000   527.5727      -63466.064     -63510.322      44.257986    
    168000   490.5776      -63469.409     -63510.563      41.154474    
    169000   521.78119     -63465.791     -63509.564      43.772138    
    170000   530.82486     -63470.858     -63515.389      44.53081     
    171000   526.02322     -63466.681     -63510.809      44.128001    
    172000   470.04968     -63468.543     -63507.976      39.432389    
    173000   494.75543     -63470.125     -63511.63       41.504951    
    174000   482.77522     -63467.399     -63507.899      40.499933    
    175000   496.68382     -63470.05      -63511.716      41.666723    
    176000   476.45767     -63469.299     -63509.268      39.969955    
    177000   572.32629     -63467.955     -63515.968      48.012358    
    178000   513.86217     -63468.741     -63511.849      43.107812    
    179000   523.48447     -63468.434     -63512.35       43.915026    
    180000   490.11774     -63467.73      -63508.846      41.115896    
    181000   505.13251     -63471.385     -63513.76       42.375482    
    182000   533.77282     -63466.57      -63511.348      44.778114    
    183000   466.30485     -63470.536     -63509.654      39.118237    
    184000   484.17435     -63464.466     -63505.083      40.617306    
    185000   533.78692     -63469.47      -63514.249      44.779296    
    186000   523.78966     -63467.331     -63511.271      43.940627    
    187000   437.29444     -63467.368     -63504.052      36.684558    
    188000   527.65833     -63469.377     -63513.643      44.26517     
    189000   549.55707     -63468.837     -63514.939      46.102251    
    190000   511.20705     -63466.925     -63509.81       42.885075    
    191000   474.86033     -63470.643     -63510.479      39.835954    
    192000   542.08717     -63467.413     -63512.889      45.475603    
    193000   453.09444     -63468.797     -63506.807      38.010017    
    194000   475.56891     -63472.13      -63512.025      39.895397    
    195000   530.15553     -63467.422     -63511.896      44.47466     
    196000   514.81878     -63470.318     -63513.506      43.188062    
    197000   476.65653     -63470.977     -63510.964      39.986637    
    198000   523.96946     -63467.373     -63511.328      43.955711    
    199000   416.85788     -63471.742     -63506.712      34.970138    
    200000   464.3207      -63466.343     -63505.294      38.951786    
    201000   494.66226     -63470.502     -63511.999      41.497135    
    202000   549.11051     -63464.782     -63510.847      46.06479     
    203000   472.71827     -63469.375     -63509.032      39.656257    
    204000   562.09793     -63467.603     -63514.757      47.154302    
    205000   517.35319     -63466.426     -63509.827      43.400674    
    206000   471.83657     -63469.574     -63509.156      39.582292    
    207000   490.45455     -63468.889     -63510.034      41.14415     
    208000   496.88836     -63467.242     -63508.926      41.683882    
    209000   493.60944     -63470.288     -63511.697      41.408814    
    210000   505.09273     -63467.242     -63509.614      42.372146    
    211000   494.37117     -63471.988     -63513.46       41.472716    
    212000   532.38868     -63467.45      -63512.112      44.661998    
    213000   470.7423      -63470.046     -63509.537      39.490494    
    214000   504.16921     -63471.732     -63514.026      42.294671    
    215000   502.66158     -63467.616     -63509.784      42.168196    
    216000   486.8053      -63470.204     -63511.042      40.838016    
    217000   465.1572      -63469.095     -63508.117      39.02196     
    218000   488.6125      -63468.359     -63509.348      40.989621    
    219000   448.9884      -63472.477     -63510.143      37.665562    
    220000   460.0671      -63468.37      -63506.965      38.594953    
    220414   512.31284     -63468.033     -63511.011      42.97784     
Loop time of 7488.83 on 1 procs for 200000 steps with 650 atoms

Performance: 0.231 ns/day, 104.012 hours/ns, 26.706 timesteps/s, 17.359 katom-step/s
99.7% CPU use with 1 MPI tasks x no OpenMP threads

MPI task timing breakdown:
Section |  min time  |  avg time  |  max time  |%varavg| %total
---------------------------------------------------------------
Pair    | 7440.1     | 7440.1     | 7440.1     |   0.0 | 99.35
Bond    | 0.014      | 0.014      | 0.014      |   0.0 |  0.00
Neigh   | 6.4446     | 6.4446     | 6.4446     |   0.0 |  0.09
Comm    | 2.8117     | 2.8117     | 2.8117     |   0.0 |  0.04
Output  | 0.15975    | 0.15975    | 0.15975    |   0.0 |  0.00
Modify  | 38.773     | 38.773     | 38.773     |   0.0 |  0.52
Other   |            | 0.5421     |            |       |  0.01

Nlocal:            650 ave         650 max         650 min
Histogram: 1 0 0 0 0 0 0 0 0 0
Nghost:           4996 ave        4996 max        4996 min
Histogram: 1 0 0 0 0 0 0 0 0 0
Neighs:         230936 ave      230936 max      230936 min
Histogram: 1 0 0 0 0 0 0 0 0 0

Total # of neighbors = 230936
Ave neighs/atom = 355.28615
Ave special neighs/atom = 0
Neighbor list builds = 372
Dangerous builds = 0
Total wall time: 2:24:26
